#Edge_dislocation for bcc [111](110)

26720 atoms
2 atom types
-5.000000	209.738526 xlo xhi
-5.000000	107.369263 ylo yhi
0.000000	14.477200 zlo zhi
xy xz yz =  0.00000  0.00000  0.00000
Atoms

1  1     2.3695495    3.0755890   12.6675500
2  1    -0.1921234    3.0721504   12.6675500
3  1     1.0777561    4.3526583    0.0000000
4  1     7.4932865    3.0827746   12.6675500
5  1     4.9313494    3.0791283   12.6675500
6  1     6.2007931    4.3596504    0.0000000
7  1    12.6176181    3.0904166   12.6675500
8  1    10.0553719    3.0865348   12.6675500
9  1    11.3243417    4.3670698    0.0000000
10  1    17.7426496    3.0985791   12.6675500
11  1    15.1800388    3.0944283   12.6675500
12  1    16.4484923    4.3749741    0.0000000
13  1    22.8685124    3.1073410   12.6675500
14  1    20.3054676    3.1028795   12.6675500
15  1    21.5733571    4.3834333    0.0000000
16  1    27.9953726    3.1168005   12.6675500
17  1    25.4318058    3.1119764   12.6675500
18  1    26.6990781    4.3925344    0.0000000
19  1    33.1234424    3.1270827   12.6675500
20  1    30.5592408    3.1218297   12.6675500
21  1    31.8258372    4.4023864    0.0000000
22  1    38.2529979    3.1383493   12.6675500
23  1    35.6880141    3.1325810   12.6675500
24  1    36.9538703    4.4131297    0.0000000
25  1    43.3844035    3.1508144   12.6675500
26  1    40.8184423    3.1444160   12.6675500
27  1    42.0834897    4.4249476    0.0000000
28  1    48.5181490    3.1647692   12.6675500
29  1    45.9509468    3.1575835   12.6675500
30  1    47.2151160    4.4380867    0.0000000
31  1    53.6549064    3.1806215   12.6675500
32  1    51.0861000    3.1724266   12.6675500
33  1    52.3493282    4.4528887    0.0000000
34  1    58.7956173    3.1989623   12.6675500
35  1    56.2246950    3.1894340   12.6675500
36  1    57.4869428    4.4698428    0.0000000
37  1    63.9416301    3.2206841   12.6675500
38  1    61.3678555    3.2093281   12.6675500
39  1    62.6291415    4.4896802    0.0000000
40  1    69.0949153    3.2471965   12.6675500
41  1    66.5172082    3.2332239   12.6675500
42  1    67.7776831    4.5135477    0.0000000
43  1    74.2583862    3.2808385   12.6675500
44  1    71.6751478    3.2629259   12.6675500
45  1    72.9352556    4.5433479    0.0000000
46  1    79.4362798    3.3256729   12.6675500
47  1    76.8452065    3.3015015   12.6675500
48  1    78.1060330    4.5824409    0.0000000
49  1    84.6340998    3.3888810   12.6675500
50  1    82.0323432    3.3543620   12.6675500
51  1    83.2963382    4.6371080    0.0000000
52  1    89.8555506    3.4817765   12.6675500
53  1    87.2419685    3.4308231   12.6675500
54  1    88.5140285    4.7191343    0.0000000
55  1    95.0885458    3.6095724   12.6675500
56  1    92.4727057    3.5423238   12.6675500
57  1    93.7588183    4.8446296    0.0000000
58  1   100.2912289    3.7139758   12.6675500
59  1    97.6960565    3.6731742   12.6675500
60  1    98.9903650    4.9871508    0.0000000
61  1   105.4752666    3.6731742   12.6675500
62  1   102.8800942    3.7139758   12.6675500
63  1   104.1809581    4.9871508    0.0000000
64  1   110.6986174    3.5423238   12.6675500
65  1   108.0827773    3.6095724   12.6675500
66  1   109.4125048    4.8446296    0.0000000
67  1   115.9293547    3.4308231   12.6675500
68  1   113.3157725    3.4817765   12.6675500
69  1   114.6572946    4.7191343    0.0000000
70  1   121.1389800    3.3543620   12.6675500
71  1   118.5372233    3.3888810   12.6675500
72  1   119.8749849    4.6371080    0.0000000
73  1   126.3261166    3.3015015   12.6675500
74  1   123.7350434    3.3256729   12.6675500
75  1   125.0652901    4.5824409    0.0000000
76  1   131.4961753    3.2629259   12.6675500
77  1   128.9129369    3.2808385   12.6675500
78  1   130.2360675    4.5433479    0.0000000
79  1   136.6541150    3.2332239   12.6675500
80  1   134.0764078    3.2471965   12.6675500
81  1   135.3936400    4.5135477    0.0000000
82  1   141.8034676    3.2093281   12.6675500
83  1   139.2296931    3.2206841   12.6675500
84  1   140.5421816    4.4896802    0.0000000
85  1   146.9466282    3.1894340   12.6675500
86  1   144.3757059    3.1989623   12.6675500
87  1   145.6843803    4.4698428    0.0000000
88  1   152.0852232    3.1724266   12.6675500
89  1   149.5164167    3.1806215   12.6675500
90  1   150.8219949    4.4528887    0.0000000
91  1   157.2203763    3.1575835   12.6675500
92  1   154.6531742    3.1647692   12.6675500
93  1   155.9562072    4.4380867    0.0000000
94  1   162.3528808    3.1444160   12.6675500
95  1   159.7869196    3.1508144   12.6675500
96  1   161.0878335    4.4249476    0.0000000
97  1   167.4833090    3.1325810   12.6675500
98  1   164.9183252    3.1383493   12.6675500
99  1   166.2174528    4.4131297    0.0000000
100  1   172.6120824    3.1218297   12.6675500
101  1   170.0478807    3.1270827   12.6675500
102  1   171.3454860    4.4023864    0.0000000
103  1   177.7395173    3.1119764   12.6675500
104  1   175.1759506    3.1168005   12.6675500
105  1   176.4722450    4.3925344    0.0000000
106  1   182.8658555    3.1028795   12.6675500
107  1   180.3028107    3.1073410   12.6675500
108  1   181.5979660    4.3834333    0.0000000
109  1   187.9912843    3.0944283   12.6675500
110  1   185.4286736    3.0985791   12.6675500
111  1   186.7228309    4.3749741    0.0000000
112  1   193.1159512    3.0865348   12.6675500
113  1   190.5537051    3.0904166   12.6675500
114  1   191.8469814    4.3670698    0.0000000
115  1   198.2399737    3.0791283   12.6675500
116  1   195.6780366    3.0827746   12.6675500
117  1   196.9705301    4.3596504    0.0000000
118  1   203.3634465    3.0721504   12.6675500
119  1   200.8017737    3.0755890   12.6675500
120  1   202.0935670    4.3526583    0.0000000
121  1    -0.2137900    5.6298849   12.6675500
122  1   203.3851132    5.6298849   12.6675500
123  1    -1.5050881    6.9072610    0.0000000
124  1     2.3249459    8.1913000   12.6675500
125  1    -0.2356291    8.1879967   12.6675500
126  1     1.0335422    9.4688271    0.0000000
127  1     4.9085712    5.6367027   12.6675500
128  1     2.3473407    5.6332465   12.6675500
129  1     3.6166221    6.9139222    0.0000000
130  1     7.4463150    8.1981820   12.6675500
131  1     4.8855920    8.1946934   12.6675500
132  1     6.1542425    9.4755682    0.0000000
133  1    10.0313648    5.6439223   12.6675500
134  1     7.4699096    5.6402593   12.6675500
135  1     8.7386890    6.9209632    0.0000000
136  1    12.5680183    8.2054676   12.6675500
137  1    10.0071214    8.2017714   12.6675500
138  1    11.2751972    9.4826933    0.0000000
139  1    15.1546664    5.6515956   12.6675500
140  1    12.5929467    5.6476986   12.6675500
141  1    13.8611747    6.9284310    0.0000000
142  1    17.6901167    8.2132082   12.6675500
143  1    15.1290138    8.2092775   12.6675500
144  1    16.3964522    9.4902495    0.0000000
145  1    20.2785703    5.6597854   12.6675500
146  1    17.7165363    5.6556215   12.6675500
147  1    18.9841562    6.9363820    0.0000000
148  1    22.8126869    8.2214657   12.6675500
149  1    20.2513373    8.2172680   12.6675500
150  1    21.5180652    9.4982930    0.0000000
151  1    25.4031955    5.6685686   12.6675500
152  1    22.8407842    5.6640973   12.6675500
153  1    24.1077307    6.9448850    0.0000000
154  1    27.9358267    8.2303156   12.6675500
155  1    25.3741785    8.2258112   12.6675500
156  1    26.6401096    9.5068920    0.0000000
157  1    30.5286942    5.6780412   12.6675500
158  1    27.9658246    5.6732118   12.6675500
159  1    29.2320223    6.9540248    0.0000000
160  1    33.0596629    8.2398520   12.6675500
161  1    30.4976484    8.2349912   12.6675500
162  1    31.7626802    9.5161306    0.0000000
163  1    35.6552640    5.6883249   12.6675500
164  1    33.0918306    5.6830728   12.6675500
165  1    34.3571921    6.9639080    0.0000000
166  1    38.1843623    8.2501936   12.6675500
167  1    35.6218922    8.2449135   12.6675500
168  1    36.8859017    9.5261135    0.0000000
169  1    40.7831662    5.6995774   12.6675500
170  1    38.2190290    5.6938184   12.6675500
171  1    39.4834527    6.9746705    0.0000000
172  1    43.3101498    8.2614936   12.6675500
173  1    40.7471031    8.2557125   12.6675500
174  1    42.0099416    9.5369743    0.0000000
175  1    45.9127531    5.7120078   12.6675500
176  1    43.3477224    5.7056297   12.6675500
177  1    44.6110908    6.9864908    0.0000000
178  1    48.4373346    8.2739546   12.6675500
179  1    45.8735438    8.2675638   12.6675500
180  1    47.1350296    9.5488864    0.0000000
181  1    51.0445106    5.7259016   12.6675500
182  1    48.4783233    5.7187500   12.6675500
183  1    49.7405016    6.9996083    0.0000000
184  1    53.5663543    8.2878525   12.6675500
185  1    51.0015810    8.2807029   12.6675500
186  1    52.2614900    9.5620822    0.0000000
187  1    56.1791258    5.7416623   12.6675500
188  1    53.6114075    5.7335171   12.6675500
189  1    54.8722445    7.0143554    0.0000000
190  1    58.6978476    8.3035772   12.6675500
191  1    56.1317410    8.2954560   12.6675500
192  1    57.3897948    9.5768820    0.0000000
193  1    61.3175996    5.7598831   12.6675500
194  1    58.7478011    5.7504176   12.6675500
195  1    60.0071366    7.0312123    0.0000000
196  1    63.8327828    8.3217048   12.6675500
197  1    61.2648062    8.3122943   12.6675500
198  1    62.5206583    9.5937468    0.0000000
199  1    66.4614383    5.7814817   12.6675500
200  1    63.8887266    5.7701843   12.6675500
201  1    65.1464145    7.0509063    0.0000000
202  1    68.9726953    8.3431376   12.6675500
203  1    66.4019884    8.3319327   12.6675500
204  1    67.6552128    9.6133755    0.0000000
205  1    71.6129922    5.8079645   12.6675500
206  1    69.0360570    5.7939833   12.6675500
207  1    70.2920301    7.0746081    0.0000000
208  1    74.1201562    8.3693968   12.6675500
209  1    71.5452597    8.3555306   12.6675500
210  1    72.7953592    9.6369017    0.0000000
211  1    76.7760618    5.8419889   12.6675500
212  1    74.1927685    5.8237962   12.6675500
213  1    75.4472149    7.1043494    0.0000000
214  1    79.2797609    8.4033105   12.6675500
215  1    76.6980275    8.3851334   12.6675500
216  1    77.9445297    9.6663444    0.0000000
217  1    81.9569336    5.8886382   12.6675500
218  1    79.3637446    5.8632601   12.6675500
219  1    80.6175922    7.1440043    0.0000000
220  1    84.4603394    8.4508548   12.6675500
221  1    81.8666043    8.4247781   12.6675500
222  1    83.1095197    9.7057940    0.0000000
223  1    87.1655798    5.9583600   12.6675500
224  1    84.5570163    5.9196165   12.6675500
225  1    85.8132777    7.2018209    0.0000000
226  1    89.6797365    8.5268223   12.6675500
227  1    87.0635236    8.4836751   12.6675500
228  1    88.3053729    9.7652183    0.0000000
229  1    92.4124431    6.0716770   12.6675500
230  1    89.7840348    6.0078737   12.6675500
231  1    91.0510369    7.2969931    0.0000000
232  1    94.9673720    8.6714065   12.6675500
233  1    92.3134076    8.5863547   12.6675500
234  1    93.5681348    9.8756385    0.0000000
235  1    97.6759642    6.2385057   12.6675500
236  1    95.0468286    6.1513632   12.6675500
237  1    96.3376744    7.4644547    0.0000000
238  1   100.2773962    8.8970067   12.6675500
239  1    97.6329803    8.7872579   12.6675500
240  1    98.9356889   10.1260445    0.0000000
241  1   102.8847654    6.3023856   12.6675500
242  1   100.2865578    6.3023856   12.6675500
243  1   101.5856616    7.6118328    0.0000000
244  1   105.5383429    8.7872579   12.6675500
245  1   102.8939269    8.8970067   12.6675500
246  1   104.2356342   10.1260445    0.0000000
247  1   108.1244945    6.1513632   12.6675500
248  1   105.4953589    6.2385057   12.6675500
249  1   106.8336487    7.4644547    0.0000000
250  1   110.8579155    8.5863547   12.6675500
251  1   108.2039511    8.6714065   12.6675500
252  1   109.6031883    9.8756385    0.0000000
253  1   113.3872883    6.0078737   12.6675500
254  1   110.7588801    6.0716770   12.6675500
255  1   112.1202862    7.2969931    0.0000000
256  1   116.1077996    8.4836751   12.6675500
257  1   113.4915866    8.5268223   12.6675500
258  1   114.8659502    9.7652183    0.0000000
259  1   118.6143069    5.9196165   12.6675500
260  1   116.0057433    5.9583600   12.6675500
261  1   117.3580454    7.2018209    0.0000000
262  1   121.3047188    8.4247781   12.6675500
263  1   118.7109837    8.4508548   12.6675500
264  1   120.0618034    9.7057940    0.0000000
265  1   123.8075785    5.8632601   12.6675500
266  1   121.2143895    5.8886382   12.6675500
267  1   122.5537309    7.1440043    0.0000000
268  1   126.4732956    8.3851334   12.6675500
269  1   123.8915622    8.4033105   12.6675500
270  1   125.2267934    9.6663444    0.0000000
271  1   128.9785547    5.8237962   12.6675500
272  1   126.3952613    5.8419889   12.6675500
273  1   127.7241083    7.1043494    0.0000000
274  1   131.6260634    8.3555306   12.6675500
275  1   129.0511669    8.3693968   12.6675500
276  1   130.3759639    9.6369017    0.0000000
277  1   134.1352661    5.7939833   12.6675500
278  1   131.5583309    5.8079645   12.6675500
279  1   132.8792931    7.0746081    0.0000000
280  1   136.7693347    8.3319327   12.6675500
281  1   134.1986279    8.3431376   12.6675500
282  1   135.5161103    9.6133755    0.0000000
283  1   139.2825965    5.7701843   12.6675500
284  1   136.7098848    5.7814817   12.6675500
285  1   138.0249087    7.0509063    0.0000000
286  1   141.9065169    8.3122943   12.6675500
287  1   139.3385403    8.3217048   12.6675500
288  1   140.6506648    9.5937468    0.0000000
289  1   144.4235220    5.7504176   12.6675500
290  1   141.8537235    5.7598831   12.6675500
291  1   143.1641865    7.0312123    0.0000000
292  1   147.0395821    8.2954560   12.6675500
293  1   144.4734755    8.3035772   12.6675500
294  1   145.7815284    9.5768820    0.0000000
295  1   149.5599156    5.7335171   12.6675500
296  1   146.9921973    5.7416623   12.6675500
297  1   148.2990786    7.0143554    0.0000000
298  1   152.1697421    8.2807029   12.6675500
299  1   149.6049688    8.2878525   12.6675500
300  1   150.9098332    9.5620822    0.0000000
301  1   154.6929998    5.7187500   12.6675500
302  1   152.1268126    5.7259016   12.6675500
303  1   153.4308215    6.9996083    0.0000000
304  1   157.2977793    8.2675638   12.6675500
305  1   154.7339885    8.2739546   12.6675500
306  1   156.0362935    9.5488864    0.0000000
307  1   159.8236007    5.7056297   12.6675500
308  1   157.2585700    5.7120078   12.6675500
309  1   158.5602323    6.9864908    0.0000000
310  1   162.4242200    8.2557125   12.6675500
311  1   159.8611734    8.2614936   12.6675500
312  1   161.1613815    9.5369743    0.0000000
313  1   164.9522941    5.6938184   12.6675500
314  1   162.3881570    5.6995774   12.6675500
315  1   163.6878704    6.9746705    0.0000000
316  1   167.5494309    8.2449135   12.6675500
317  1   164.9869608    8.2501936   12.6675500
318  1   166.2854214    9.5261135    0.0000000
319  1   170.0794925    5.6830728   12.6675500
320  1   167.5160592    5.6883249   12.6675500
321  1   168.8141310    6.9639080    0.0000000
322  1   172.6736747    8.2349912   12.6675500
323  1   170.1116603    8.2398520   12.6675500
324  1   171.4086429    9.5161306    0.0000000
325  1   175.2054985    5.6732118   12.6675500
326  1   172.6426289    5.6780412   12.6675500
327  1   173.9393008    6.9540248    0.0000000
328  1   177.7971446    8.2258112   12.6675500
329  1   175.2354964    8.2303156   12.6675500
330  1   176.5312135    9.5068920    0.0000000
331  1   180.3305390    5.6640973   12.6675500
332  1   177.7681276    5.6685686   12.6675500
333  1   179.0635924    6.9448850    0.0000000
334  1   182.9199858    8.2172680   12.6675500
335  1   180.3586362    8.2214657   12.6675500
336  1   181.6532579    9.4982930    0.0000000
337  1   185.4547868    5.6556215   12.6675500
338  1   182.8927528    5.6597854   12.6675500
339  1   184.1871669    6.9363820    0.0000000
340  1   188.0423094    8.2092775   12.6675500
341  1   185.4812064    8.2132082   12.6675500
342  1   186.7748709    9.4902495    0.0000000
343  1   190.5783764    5.6476986   12.6675500
344  1   188.0166567    5.6515956   12.6675500
345  1   189.3101485    6.9284310    0.0000000
346  1   193.1642017    8.2017714   12.6675500
347  1   190.6033048    8.2054676   12.6675500
348  1   191.8961260    9.4826933    0.0000000
349  1   195.7014135    5.6402593   12.6675500
350  1   193.1399584    5.6439223   12.6675500
351  1   194.4326341    6.9209632    0.0000000
352  1   198.2857311    8.1946934   12.6675500
353  1   195.7250081    8.1981820   12.6675500
354  1   197.0170807    9.4755682    0.0000000
355  1   200.8239825    5.6332465   12.6675500
356  1   198.2627519    5.6367027   12.6675500
357  1   199.5547011    6.9139222    0.0000000
358  1   203.4069522    8.1879967   12.6675500
359  1   200.8463772    8.1913000   12.6675500
360  1   202.1377810    9.4688271    0.0000000
361  1     2.3695495    3.0755890    1.8096500
362  1    -0.1921234    3.0721504    1.8096500
363  1     1.0777561    4.3526583    3.6193000
364  1     7.4932865    3.0827746    1.8096500
365  1     4.9313494    3.0791283    1.8096500
366  1     6.2007931    4.3596504    3.6193000
367  1    12.6176181    3.0904166    1.8096500
368  1    10.0553719    3.0865348    1.8096500
369  1    11.3243417    4.3670698    3.6193000
370  1    17.7426496    3.0985791    1.8096500
371  1    15.1800388    3.0944283    1.8096500
372  1    16.4484923    4.3749741    3.6193000
373  1    22.8685124    3.1073410    1.8096500
374  1    20.3054676    3.1028795    1.8096500
375  1    21.5733571    4.3834333    3.6193000
376  1    27.9953726    3.1168005    1.8096500
377  1    25.4318058    3.1119764    1.8096500
378  1    26.6990781    4.3925344    3.6193000
379  1    33.1234424    3.1270827    1.8096500
380  1    30.5592408    3.1218297    1.8096500
381  1    31.8258372    4.4023864    3.6193000
382  1    38.2529979    3.1383493    1.8096500
383  1    35.6880141    3.1325810    1.8096500
384  1    36.9538703    4.4131297    3.6193000
385  1    43.3844035    3.1508144    1.8096500
386  1    40.8184423    3.1444160    1.8096500
387  1    42.0834897    4.4249476    3.6193000
388  1    48.5181490    3.1647692    1.8096500
389  1    45.9509468    3.1575835    1.8096500
390  1    47.2151160    4.4380867    3.6193000
391  1    53.6549064    3.1806215    1.8096500
392  1    51.0861000    3.1724266    1.8096500
393  1    52.3493282    4.4528887    3.6193000
394  1    58.7956173    3.1989623    1.8096500
395  1    56.2246950    3.1894340    1.8096500
396  1    57.4869428    4.4698428    3.6193000
397  1    63.9416301    3.2206841    1.8096500
398  1    61.3678555    3.2093281    1.8096500
399  1    62.6291415    4.4896802    3.6193000
400  1    69.0949153    3.2471965    1.8096500
401  1    66.5172082    3.2332239    1.8096500
402  1    67.7776831    4.5135477    3.6193000
403  1    74.2583862    3.2808385    1.8096500
404  1    71.6751478    3.2629259    1.8096500
405  1    72.9352556    4.5433479    3.6193000
406  1    79.4362798    3.3256729    1.8096500
407  1    76.8452065    3.3015015    1.8096500
408  1    78.1060330    4.5824409    3.6193000
409  1    84.6340998    3.3888810    1.8096500
410  1    82.0323432    3.3543620    1.8096500
411  1    83.2963382    4.6371080    3.6193000
412  1    89.8555506    3.4817765    1.8096500
413  1    87.2419685    3.4308231    1.8096500
414  1    88.5140285    4.7191343    3.6193000
415  1    95.0885458    3.6095724    1.8096500
416  1    92.4727057    3.5423238    1.8096500
417  1    93.7588183    4.8446296    3.6193000
418  1   100.2912289    3.7139758    1.8096500
419  1    97.6960565    3.6731742    1.8096500
420  1    98.9903650    4.9871508    3.6193000
421  1   105.4752666    3.6731742    1.8096500
422  1   102.8800942    3.7139758    1.8096500
423  1   104.1809581    4.9871508    3.6193000
424  1   110.6986174    3.5423238    1.8096500
425  1   108.0827773    3.6095724    1.8096500
426  1   109.4125048    4.8446296    3.6193000
427  1   115.9293547    3.4308231    1.8096500
428  1   113.3157725    3.4817765    1.8096500
429  1   114.6572946    4.7191343    3.6193000
430  1   121.1389800    3.3543620    1.8096500
431  1   118.5372233    3.3888810    1.8096500
432  1   119.8749849    4.6371080    3.6193000
433  1   126.3261166    3.3015015    1.8096500
434  1   123.7350434    3.3256729    1.8096500
435  1   125.0652901    4.5824409    3.6193000
436  1   131.4961753    3.2629259    1.8096500
437  1   128.9129369    3.2808385    1.8096500
438  1   130.2360675    4.5433479    3.6193000
439  1   136.6541150    3.2332239    1.8096500
440  1   134.0764078    3.2471965    1.8096500
441  1   135.3936400    4.5135477    3.6193000
442  1   141.8034676    3.2093281    1.8096500
443  1   139.2296931    3.2206841    1.8096500
444  1   140.5421816    4.4896802    3.6193000
445  1   146.9466282    3.1894340    1.8096500
446  1   144.3757059    3.1989623    1.8096500
447  1   145.6843803    4.4698428    3.6193000
448  1   152.0852232    3.1724266    1.8096500
449  1   149.5164167    3.1806215    1.8096500
450  1   150.8219949    4.4528887    3.6193000
451  1   157.2203763    3.1575835    1.8096500
452  1   154.6531742    3.1647692    1.8096500
453  1   155.9562072    4.4380867    3.6193000
454  1   162.3528808    3.1444160    1.8096500
455  1   159.7869196    3.1508144    1.8096500
456  1   161.0878335    4.4249476    3.6193000
457  1   167.4833090    3.1325810    1.8096500
458  1   164.9183252    3.1383493    1.8096500
459  1   166.2174528    4.4131297    3.6193000
460  1   172.6120824    3.1218297    1.8096500
461  1   170.0478807    3.1270827    1.8096500
462  1   171.3454860    4.4023864    3.6193000
463  1   177.7395173    3.1119764    1.8096500
464  1   175.1759506    3.1168005    1.8096500
465  1   176.4722450    4.3925344    3.6193000
466  1   182.8658555    3.1028795    1.8096500
467  1   180.3028107    3.1073410    1.8096500
468  1   181.5979660    4.3834333    3.6193000
469  1   187.9912843    3.0944283    1.8096500
470  1   185.4286736    3.0985791    1.8096500
471  1   186.7228309    4.3749741    3.6193000
472  1   193.1159512    3.0865348    1.8096500
473  1   190.5537051    3.0904166    1.8096500
474  1   191.8469814    4.3670698    3.6193000
475  1   198.2399737    3.0791283    1.8096500
476  1   195.6780366    3.0827746    1.8096500
477  1   196.9705301    4.3596504    3.6193000
478  1   203.3634465    3.0721504    1.8096500
479  1   200.8017737    3.0755890    1.8096500
480  1   202.0935670    4.3526583    3.6193000
481  1    -0.2137900    5.6298849    1.8096500
482  1   203.3851132    5.6298849    1.8096500
483  1    -1.5050881    6.9072610    3.6193000
484  1     2.3249459    8.1913000    1.8096500
485  1    -0.2356291    8.1879967    1.8096500
486  1     1.0335422    9.4688271    3.6193000
487  1     4.9085712    5.6367027    1.8096500
488  1     2.3473407    5.6332465    1.8096500
489  1     3.6166221    6.9139222    3.6193000
490  1     7.4463150    8.1981820    1.8096500
491  1     4.8855920    8.1946934    1.8096500
492  1     6.1542425    9.4755682    3.6193000
493  1    10.0313648    5.6439223    1.8096500
494  1     7.4699096    5.6402593    1.8096500
495  1     8.7386890    6.9209632    3.6193000
496  1    12.5680183    8.2054676    1.8096500
497  1    10.0071214    8.2017714    1.8096500
498  1    11.2751972    9.4826933    3.6193000
499  1    15.1546664    5.6515956    1.8096500
500  1    12.5929467    5.6476986    1.8096500
501  1    13.8611747    6.9284310    3.6193000
502  1    17.6901167    8.2132082    1.8096500
503  1    15.1290138    8.2092775    1.8096500
504  1    16.3964522    9.4902495    3.6193000
505  1    20.2785703    5.6597854    1.8096500
506  1    17.7165363    5.6556215    1.8096500
507  1    18.9841562    6.9363820    3.6193000
508  1    22.8126869    8.2214657    1.8096500
509  1    20.2513373    8.2172680    1.8096500
510  1    21.5180652    9.4982930    3.6193000
511  1    25.4031955    5.6685686    1.8096500
512  1    22.8407842    5.6640973    1.8096500
513  1    24.1077307    6.9448850    3.6193000
514  1    27.9358267    8.2303156    1.8096500
515  1    25.3741785    8.2258112    1.8096500
516  1    26.6401096    9.5068920    3.6193000
517  1    30.5286942    5.6780412    1.8096500
518  1    27.9658246    5.6732118    1.8096500
519  1    29.2320223    6.9540248    3.6193000
520  1    33.0596629    8.2398520    1.8096500
521  1    30.4976484    8.2349912    1.8096500
522  1    31.7626802    9.5161306    3.6193000
523  1    35.6552640    5.6883249    1.8096500
524  1    33.0918306    5.6830728    1.8096500
525  1    34.3571921    6.9639080    3.6193000
526  1    38.1843623    8.2501936    1.8096500
527  1    35.6218922    8.2449135    1.8096500
528  1    36.8859017    9.5261135    3.6193000
529  1    40.7831662    5.6995774    1.8096500
530  1    38.2190290    5.6938184    1.8096500
531  1    39.4834527    6.9746705    3.6193000
532  1    43.3101498    8.2614936    1.8096500
533  1    40.7471031    8.2557125    1.8096500
534  1    42.0099416    9.5369743    3.6193000
535  1    45.9127531    5.7120078    1.8096500
536  1    43.3477224    5.7056297    1.8096500
537  1    44.6110908    6.9864908    3.6193000
538  1    48.4373346    8.2739546    1.8096500
539  1    45.8735438    8.2675638    1.8096500
540  1    47.1350296    9.5488864    3.6193000
541  1    51.0445106    5.7259016    1.8096500
542  1    48.4783233    5.7187500    1.8096500
543  1    49.7405016    6.9996083    3.6193000
544  1    53.5663543    8.2878525    1.8096500
545  1    51.0015810    8.2807029    1.8096500
546  1    52.2614900    9.5620822    3.6193000
547  1    56.1791258    5.7416623    1.8096500
548  1    53.6114075    5.7335171    1.8096500
549  1    54.8722445    7.0143554    3.6193000
550  1    58.6978476    8.3035772    1.8096500
551  1    56.1317410    8.2954560    1.8096500
552  1    57.3897948    9.5768820    3.6193000
553  1    61.3175996    5.7598831    1.8096500
554  1    58.7478011    5.7504176    1.8096500
555  1    60.0071366    7.0312123    3.6193000
556  1    63.8327828    8.3217048    1.8096500
557  1    61.2648062    8.3122943    1.8096500
558  1    62.5206583    9.5937468    3.6193000
559  1    66.4614383    5.7814817    1.8096500
560  1    63.8887266    5.7701843    1.8096500
561  1    65.1464145    7.0509063    3.6193000
562  1    68.9726953    8.3431376    1.8096500
563  1    66.4019884    8.3319327    1.8096500
564  1    67.6552128    9.6133755    3.6193000
565  1    71.6129922    5.8079645    1.8096500
566  1    69.0360570    5.7939833    1.8096500
567  1    70.2920301    7.0746081    3.6193000
568  1    74.1201562    8.3693968    1.8096500
569  1    71.5452597    8.3555306    1.8096500
570  1    72.7953592    9.6369017    3.6193000
571  1    76.7760618    5.8419889    1.8096500
572  1    74.1927685    5.8237962    1.8096500
573  1    75.4472149    7.1043494    3.6193000
574  1    79.2797609    8.4033105    1.8096500
575  1    76.6980275    8.3851334    1.8096500
576  1    77.9445297    9.6663444    3.6193000
577  1    81.9569336    5.8886382    1.8096500
578  1    79.3637446    5.8632601    1.8096500
579  1    80.6175922    7.1440043    3.6193000
580  1    84.4603394    8.4508548    1.8096500
581  1    81.8666043    8.4247781    1.8096500
582  1    83.1095197    9.7057940    3.6193000
583  1    87.1655798    5.9583600    1.8096500
584  1    84.5570163    5.9196165    1.8096500
585  1    85.8132777    7.2018209    3.6193000
586  1    89.6797365    8.5268223    1.8096500
587  1    87.0635236    8.4836751    1.8096500
588  1    88.3053729    9.7652183    3.6193000
589  1    92.4124431    6.0716770    1.8096500
590  1    89.7840348    6.0078737    1.8096500
591  1    91.0510369    7.2969931    3.6193000
592  1    94.9673720    8.6714065    1.8096500
593  1    92.3134076    8.5863547    1.8096500
594  1    93.5681348    9.8756385    3.6193000
595  1    97.6759642    6.2385057    1.8096500
596  1    95.0468286    6.1513632    1.8096500
597  1    96.3376744    7.4644547    3.6193000
598  1   100.2773962    8.8970067    1.8096500
599  1    97.6329803    8.7872579    1.8096500
600  1    98.9356889   10.1260445    3.6193000
601  1   102.8847654    6.3023856    1.8096500
602  1   100.2865578    6.3023856    1.8096500
603  1   101.5856616    7.6118328    3.6193000
604  1   105.5383429    8.7872579    1.8096500
605  1   102.8939269    8.8970067    1.8096500
606  1   104.2356342   10.1260445    3.6193000
607  1   108.1244945    6.1513632    1.8096500
608  1   105.4953589    6.2385057    1.8096500
609  1   106.8336487    7.4644547    3.6193000
610  1   110.8579155    8.5863547    1.8096500
611  1   108.2039511    8.6714065    1.8096500
612  1   109.6031883    9.8756385    3.6193000
613  1   113.3872883    6.0078737    1.8096500
614  1   110.7588801    6.0716770    1.8096500
615  1   112.1202862    7.2969931    3.6193000
616  1   116.1077996    8.4836751    1.8096500
617  1   113.4915866    8.5268223    1.8096500
618  1   114.8659502    9.7652183    3.6193000
619  1   118.6143069    5.9196165    1.8096500
620  1   116.0057433    5.9583600    1.8096500
621  1   117.3580454    7.2018209    3.6193000
622  1   121.3047188    8.4247781    1.8096500
623  1   118.7109837    8.4508548    1.8096500
624  1   120.0618034    9.7057940    3.6193000
625  1   123.8075785    5.8632601    1.8096500
626  1   121.2143895    5.8886382    1.8096500
627  1   122.5537309    7.1440043    3.6193000
628  1   126.4732956    8.3851334    1.8096500
629  1   123.8915622    8.4033105    1.8096500
630  1   125.2267934    9.6663444    3.6193000
631  1   128.9785547    5.8237962    1.8096500
632  1   126.3952613    5.8419889    1.8096500
633  1   127.7241083    7.1043494    3.6193000
634  1   131.6260634    8.3555306    1.8096500
635  1   129.0511669    8.3693968    1.8096500
636  1   130.3759639    9.6369017    3.6193000