#Edge_dislocation for bcc [111](110)

26720 atoms
2 atom types
-5.000000	209.738526 xlo xhi
-5.000000	107.369263 ylo yhi
0.000000	14.477200 zlo zhi
xy xz yz =  0.00000  0.00000  0.00000
Atoms

1  1     3.8388474    3.8388474   12.6675500
2  1     1.2796158    3.8388474   12.6675500
3  1     2.5592316    5.1184632    0.0000000
4  1     8.9573105    3.8388474   12.6675500
5  1     6.3980789    3.8388474   12.6675500
6  1     7.6776947    5.1184632    0.0000000
7  1    14.0757737    3.8388474   12.6675500
8  1    11.5165421    3.8388474   12.6675500
9  1    12.7961579    5.1184632    0.0000000
10  1    19.1942368    3.8388474   12.6675500
11  1    16.6350052    3.8388474   12.6675500
12  1    17.9146210    5.1184632    0.0000000
13  1    24.3127000    3.8388474   12.6675500
14  1    21.7534684    3.8388474   12.6675500
15  1    23.0330842    5.1184632    0.0000000
16  1    29.4311631    3.8388474   12.6675500
17  1    26.8719315    3.8388474   12.6675500
18  1    28.1515473    5.1184632    0.0000000
19  1    34.5496263    3.8388474   12.6675500
20  1    31.9903947    3.8388474   12.6675500
21  1    33.2700105    5.1184632    0.0000000
22  1    39.6680894    3.8388474   12.6675500
23  1    37.1088578    3.8388474   12.6675500
24  1    38.3884736    5.1184632    0.0000000
25  1    44.7865526    3.8388474   12.6675500
26  1    42.2273210    3.8388474   12.6675500
27  1    43.5069368    5.1184632    0.0000000
28  1    49.9050157    3.8388474   12.6675500
29  1    47.3457841    3.8388474   12.6675500
30  1    48.6253999    5.1184632    0.0000000
31  1    55.0234789    3.8388474   12.6675500
32  1    52.4642473    3.8388474   12.6675500
33  1    53.7438631    5.1184632    0.0000000
34  1    60.1419420    3.8388474   12.6675500
35  1    57.5827104    3.8388474   12.6675500
36  1    58.8623262    5.1184632    0.0000000
37  1    65.2604052    3.8388474   12.6675500
38  1    62.7011736    3.8388474   12.6675500
39  1    63.9807894    5.1184632    0.0000000
40  1    70.3788683    3.8388474   12.6675500
41  1    67.8196367    3.8388474   12.6675500
42  1    69.0992525    5.1184632    0.0000000
43  1    75.4973315    3.8388474   12.6675500
44  1    72.9380999    3.8388474   12.6675500
45  1    74.2177157    5.1184632    0.0000000
46  1    80.6157946    3.8388474   12.6675500
47  1    78.0565630    3.8388474   12.6675500
48  1    79.3361788    5.1184632    0.0000000
49  1    85.7342578    3.8388474   12.6675500
50  1    83.1750262    3.8388474   12.6675500
51  1    84.4546420    5.1184632    0.0000000
52  1    90.8527209    3.8388474   12.6675500
53  1    88.2934893    3.8388474   12.6675500
54  1    89.5731051    5.1184632    0.0000000
55  1    95.9711841    3.8388474   12.6675500
56  1    93.4119525    3.8388474   12.6675500
57  1    94.6915683    5.1184632    0.0000000
58  1   101.0896472    3.8388474   12.6675500
59  1    98.5304156    3.8388474   12.6675500
60  1    99.8100314    5.1184632    0.0000000
61  1   106.2081104    3.8388474   12.6675500
62  1   103.6488788    3.8388474   12.6675500
63  1   104.9284946    5.1184632    0.0000000
64  1   111.3265735    3.8388474   12.6675500
65  1   108.7673419    3.8388474   12.6675500
66  1   110.0469577    5.1184632    0.0000000
67  1   116.4450367    3.8388474   12.6675500
68  1   113.8858051    3.8388474   12.6675500
69  1   115.1654209    5.1184632    0.0000000
70  1   121.5634998    3.8388474   12.6675500
71  1   119.0042682    3.8388474   12.6675500
72  1   120.2838840    5.1184632    0.0000000
73  1   126.6819630    3.8388474   12.6675500
74  1   124.1227314    3.8388474   12.6675500
75  1   125.4023472    5.1184632    0.0000000
76  1   131.8004261    3.8388474   12.6675500
77  1   129.2411945    3.8388474   12.6675500
78  1   130.5208103    5.1184632    0.0000000
79  1   136.9188893    3.8388474   12.6675500
80  1   134.3596577    3.8388474   12.6675500
81  1   135.6392735    5.1184632    0.0000000
82  1   142.0373524    3.8388474   12.6675500
83  1   139.4781208    3.8388474   12.6675500
84  1   140.7577366    5.1184632    0.0000000
85  1   147.1558156    3.8388474   12.6675500
86  1   144.5965840    3.8388474   12.6675500
87  1   145.8761998    5.1184632    0.0000000
88  1   152.2742787    3.8388474   12.6675500
89  1   149.7150471    3.8388474   12.6675500
90  1   150.9946629    5.1184632    0.0000000
91  1   157.3927419    3.8388474   12.6675500
92  1   154.8335103    3.8388474   12.6675500
93  1   156.1131261    5.1184632    0.0000000
94  1   162.5112050    3.8388474   12.6675500
95  1   159.9519734    3.8388474   12.6675500
96  1   161.2315892    5.1184632    0.0000000
97  1   167.6296682    3.8388474   12.6675500
98  1   165.0704366    3.8388474   12.6675500
99  1   166.3500524    5.1184632    0.0000000
100  1   172.7481313    3.8388474   12.6675500
101  1   170.1888997    3.8388474   12.6675500
102  1   171.4685155    5.1184632    0.0000000
103  1   177.8665945    3.8388474   12.6675500
104  1   175.3073629    3.8388474   12.6675500
105  1   176.5869787    5.1184632    0.0000000
106  1   182.9850576    3.8388474   12.6675500
107  1   180.4258260    3.8388474   12.6675500
108  1   181.7054418    5.1184632    0.0000000
109  1   188.1035208    3.8388474   12.6675500
110  1   185.5442892    3.8388474   12.6675500
111  1   186.8239050    5.1184632    0.0000000
112  1   193.2219839    3.8388474   12.6675500
113  1   190.6627523    3.8388474   12.6675500
114  1   191.9423681    5.1184632    0.0000000
115  1   198.3404471    3.8388474   12.6675500
116  1   195.7812155    3.8388474   12.6675500
117  1   197.0608313    5.1184632    0.0000000
118  1   203.4589102    3.8388474   12.6675500
119  1   200.8996786    3.8388474   12.6675500
120  1   202.1792944    5.1184632    0.0000000
121  1     1.2796158    6.3980789   12.6675500
122  1   203.4589102    6.3980789   12.6675500
123  1     0.0000000    7.6776947    0.0000000
124  1     3.8388474    8.9573105   12.6675500
125  1     1.2796158    8.9573105   12.6675500
126  1     2.5592316   10.2369263    0.0000000
127  1     6.3980789    6.3980789   12.6675500
128  1     3.8388474    6.3980789   12.6675500
129  1     5.1184632    7.6776947    0.0000000
130  1     8.9573105    8.9573105   12.6675500
131  1     6.3980789    8.9573105   12.6675500
132  1     7.6776947   10.2369263    0.0000000
133  1    11.5165421    6.3980789   12.6675500
134  1     8.9573105    6.3980789   12.6675500
135  1    10.2369263    7.6776947    0.0000000
136  1    14.0757737    8.9573105   12.6675500
137  1    11.5165421    8.9573105   12.6675500
138  1    12.7961579   10.2369263    0.0000000
139  1    16.6350052    6.3980789   12.6675500
140  1    14.0757737    6.3980789   12.6675500
141  1    15.3553895    7.6776947    0.0000000
142  1    19.1942368    8.9573105   12.6675500
143  1    16.6350052    8.9573105   12.6675500
144  1    17.9146210   10.2369263    0.0000000
145  1    21.7534684    6.3980789   12.6675500
146  1    19.1942368    6.3980789   12.6675500
147  1    20.4738526    7.6776947    0.0000000
148  1    24.3127000    8.9573105   12.6675500
149  1    21.7534684    8.9573105   12.6675500
150  1    23.0330842   10.2369263    0.0000000
151  1    26.8719315    6.3980789   12.6675500
152  1    24.3127000    6.3980789   12.6675500
153  1    25.5923158    7.6776947    0.0000000
154  1    29.4311631    8.9573105   12.6675500
155  1    26.8719315    8.9573105   12.6675500
156  1    28.1515473   10.2369263    0.0000000
157  1    31.9903947    6.3980789   12.6675500
158  1    29.4311631    6.3980789   12.6675500
159  1    30.7107789    7.6776947    0.0000000
160  1    34.5496263    8.9573105   12.6675500
161  1    31.9903947    8.9573105   12.6675500
162  1    33.2700105   10.2369263    0.0000000
163  1    37.1088578    6.3980789   12.6675500
164  1    34.5496263    6.3980789   12.6675500
165  1    35.8292420    7.6776947    0.0000000
166  1    39.6680894    8.9573105   12.6675500
167  1    37.1088578    8.9573105   12.6675500
168  1    38.3884736   10.2369263    0.0000000
169  1    42.2273210    6.3980789   12.6675500
170  1    39.6680894    6.3980789   12.6675500
171  1    40.9477052    7.6776947    0.0000000
172  1    44.7865526    8.9573105   12.6675500
173  1    42.2273210    8.9573105   12.6675500
174  1    43.5069368   10.2369263    0.0000000
175  1    47.3457841    6.3980789   12.6675500
176  1    44.7865526    6.3980789   12.6675500
177  1    46.0661684    7.6776947    0.0000000
178  1    49.9050157    8.9573105   12.6675500
179  1    47.3457841    8.9573105   12.6675500
180  1    48.6253999   10.2369263    0.0000000
181  1    52.4642473    6.3980789   12.6675500
182  1    49.9050157    6.3980789   12.6675500
183  1    51.1846315    7.6776947    0.0000000
184  1    55.0234789    8.9573105   12.6675500
185  1    52.4642473    8.9573105   12.6675500
186  1    53.7438631   10.2369263    0.0000000
187  1    57.5827104    6.3980789   12.6675500
188  1    55.0234789    6.3980789   12.6675500
189  1    56.3030947    7.6776947    0.0000000
190  1    60.1419420    8.9573105   12.6675500
191  1    57.5827104    8.9573105   12.6675500
192  1    58.8623262   10.2369263    0.0000000
193  1    62.7011736    6.3980789   12.6675500
194  1    60.1419420    6.3980789   12.6675500
195  1    61.4215578    7.6776947    0.0000000
196  1    65.2604052    8.9573105   12.6675500
197  1    62.7011736    8.9573105   12.6675500
198  1    63.9807894   10.2369263    0.0000000
199  1    67.8196367    6.3980789   12.6675500
200  1    65.2604052    6.3980789   12.6675500
201  1    66.5400209    7.6776947    0.0000000
202  1    70.3788683    8.9573105   12.6675500
203  1    67.8196367    8.9573105   12.6675500
204  1    69.0992525   10.2369263    0.0000000
205  1    72.9380999    6.3980789   12.6675500
206  1    70.3788683    6.3980789   12.6675500
207  1    71.6584841    7.6776947    0.0000000
208  1    75.4973315    8.9573105   12.6675500
209  1    72.9380999    8.9573105   12.6675500
210  1    74.2177157   10.2369263    0.0000000
211  1    78.0565630    6.3980789   12.6675500
212  1    75.4973315    6.3980789   12.6675500
213  1    76.7769473    7.6776947    0.0000000
214  1    80.6157946    8.9573105   12.6675500
215  1    78.0565630    8.9573105   12.6675500
216  1    79.3361788   10.2369263    0.0000000
217  1    83.1750262    6.3980789   12.6675500
218  1    80.6157946    6.3980789   12.6675500
219  1    81.8954104    7.6776947    0.0000000
220  1    85.7342578    8.9573105   12.6675500
221  1    83.1750262    8.9573105   12.6675500
222  1    84.4546420   10.2369263    0.0000000
223  1    88.2934893    6.3980789   12.6675500
224  1    85.7342578    6.3980789   12.6675500
225  1    87.0138735    7.6776947    0.0000000
226  1    90.8527209    8.9573105   12.6675500
227  1    88.2934893    8.9573105   12.6675500
228  1    89.5731051   10.2369263    0.0000000
229  1    93.4119525    6.3980789   12.6675500
230  1    90.8527209    6.3980789   12.6675500
231  1    92.1323367    7.6776947    0.0000000
232  1    95.9711841    8.9573105   12.6675500
233  1    93.4119525    8.9573105   12.6675500
234  1    94.6915683   10.2369263    0.0000000
235  1    98.5304156    6.3980789   12.6675500
236  1    95.9711841    6.3980789   12.6675500
237  1    97.2507998    7.6776947    0.0000000
238  1   101.0896472    8.9573105   12.6675500
239  1    98.5304156    8.9573105   12.6675500
240  1    99.8100314   10.2369263    0.0000000
241  1   103.6488788    6.3980789   12.6675500
242  1   101.0896472    6.3980789   12.6675500
243  1   102.3692630    7.6776947    0.0000000
244  1   106.2081104    8.9573105   12.6675500
245  1   103.6488788    8.9573105   12.6675500
246  1   104.9284946   10.2369263    0.0000000
247  1   108.7673419    6.3980789   12.6675500
248  1   106.2081104    6.3980789   12.6675500
249  1   107.4877262    7.6776947    0.0000000
250  1   111.3265735    8.9573105   12.6675500
251  1   108.7673419    8.9573105   12.6675500
252  1   110.0469577   10.2369263    0.0000000
253  1   113.8858051    6.3980789   12.6675500
254  1   111.3265735    6.3980789   12.6675500
255  1   112.6061893    7.6776947    0.0000000
256  1   116.4450367    8.9573105   12.6675500
257  1   113.8858051    8.9573105   12.6675500
258  1   115.1654209   10.2369263    0.0000000
259  1   119.0042682    6.3980789   12.6675500
260  1   116.4450367    6.3980789   12.6675500
261  1   117.7246524    7.6776947    0.0000000
262  1   121.5634998    8.9573105   12.6675500
263  1   119.0042682    8.9573105   12.6675500
264  1   120.2838840   10.2369263    0.0000000
265  1   124.1227314    6.3980789   12.6675500
266  1   121.5634998    6.3980789   12.6675500
267  1   122.8431156    7.6776947    0.0000000
268  1   126.6819630    8.9573105   12.6675500
269  1   124.1227314    8.9573105   12.6675500
270  1   125.4023472   10.2369263    0.0000000
271  1   129.2411945    6.3980789   12.6675500
272  1   126.6819630    6.3980789   12.6675500
273  1   127.9615788    7.6776947    0.0000000
274  1   131.8004261    8.9573105   12.6675500
275  1   129.2411945    8.9573105   12.6675500
276  1   130.5208103   10.2369263    0.0000000
277  1   134.3596577    6.3980789   12.6675500
278  1   131.8004261    6.3980789   12.6675500
279  1   133.0800419    7.6776947    0.0000000
280  1   136.9188893    8.9573105   12.6675500
281  1   134.3596577    8.9573105   12.6675500
282  1   135.6392735   10.2369263    0.0000000
283  1   139.4781208    6.3980789   12.6675500
284  1   136.9188893    6.3980789   12.6675500
285  1   138.1985051    7.6776947    0.0000000
286  1   142.0373524    8.9573105   12.6675500
287  1   139.4781208    8.9573105   12.6675500
288  1   140.7577366   10.2369263    0.0000000
289  1   144.5965840    6.3980789   12.6675500
290  1   142.0373524    6.3980789   12.6675500
291  1   143.3169682    7.6776947    0.0000000
292  1   147.1558156    8.9573105   12.6675500
293  1   144.5965840    8.9573105   12.6675500
294  1   145.8761998   10.2369263    0.0000000
295  1   149.7150471    6.3980789   12.6675500
296  1   147.1558156    6.3980789   12.6675500
297  1   148.4354313    7.6776947    0.0000000
298  1   152.2742787    8.9573105   12.6675500
299  1   149.7150471    8.9573105   12.6675500
300  1   150.9946629   10.2369263    0.0000000
301  1   154.8335103    6.3980789   12.6675500
302  1   152.2742787    6.3980789   12.6675500
303  1   153.5538945    7.6776947    0.0000000
304  1   157.3927419    8.9573105   12.6675500
305  1   154.8335103    8.9573105   12.6675500
306  1   156.1131261   10.2369263    0.0000000
307  1   159.9519734    6.3980789   12.6675500
308  1   157.3927419    6.3980789   12.6675500
309  1   158.6723577    7.6776947    0.0000000
310  1   162.5112050    8.9573105   12.6675500
311  1   159.9519734    8.9573105   12.6675500
312  1   161.2315892   10.2369263    0.0000000
313  1   165.0704366    6.3980789   12.6675500
314  1   162.5112050    6.3980789   12.6675500
315  1   163.7908208    7.6776947    0.0000000
316  1   167.6296682    8.9573105   12.6675500
317  1   165.0704366    8.9573105   12.6675500
318  1   166.3500524   10.2369263    0.0000000
319  1   170.1888997    6.3980789   12.6675500
320  1   167.6296682    6.3980789   12.6675500
321  1   168.9092840    7.6776947    0.0000000
322  1   172.7481313    8.9573105   12.6675500
323  1   170.1888997    8.9573105   12.6675500
324  1   171.4685155   10.2369263    0.0000000
325  1   175.3073629    6.3980789   12.6675500
326  1   172.7481313    6.3980789   12.6675500
327  1   174.0277471    7.6776947    0.0000000
328  1   177.8665945    8.9573105   12.6675500
329  1   175.3073629    8.9573105   12.6675500
330  1   176.5869787   10.2369263    0.0000000
331  1   180.4258260    6.3980789   12.6675500
332  1   177.8665945    6.3980789   12.6675500
333  1   179.1462102    7.6776947    0.0000000
334  1   182.9850576    8.9573105   12.6675500
335  1   180.4258260    8.9573105   12.6675500
336  1   181.7054418   10.2369263    0.0000000
337  1   185.5442892    6.3980789   12.6675500
338  1   182.9850576    6.3980789   12.6675500
339  1   184.2646734    7.6776947    0.0000000
340  1   188.1035208    8.9573105   12.6675500
341  1   185.5442892    8.9573105   12.6675500
342  1   186.8239050   10.2369263    0.0000000
343  1   190.6627523    6.3980789   12.6675500
344  1   188.1035208    6.3980789   12.6675500
345  1   189.3831366    7.6776947    0.0000000
346  1   193.2219839    8.9573105   12.6675500
347  1   190.6627523    8.9573105   12.6675500
348  1   191.9423681   10.2369263    0.0000000
349  1   195.7812155    6.3980789   12.6675500
350  1   193.2219839    6.3980789   12.6675500
351  1   194.5015997    7.6776947    0.0000000
352  1   198.3404471    8.9573105   12.6675500
353  1   195.7812155    8.9573105   12.6675500
354  1   197.0608313   10.2369263    0.0000000
355  1   200.8996786    6.3980789   12.6675500
356  1   198.3404471    6.3980789   12.6675500
357  1   199.6200629    7.6776947    0.0000000
358  1   203.4589102    8.9573105   12.6675500
359  1   200.8996786    8.9573105   12.6675500
360  1   202.1792944   10.2369263    0.0000000
361  1     3.8388474    3.8388474    1.8096500
362  1     1.2796158    3.8388474    1.8096500
363  1     2.5592316    5.1184632    3.6193000
364  1     8.9573105    3.8388474    1.8096500
365  1     6.3980789    3.8388474    1.8096500
366  1     7.6776947    5.1184632    3.6193000
367  1    14.0757737    3.8388474    1.8096500
368  1    11.5165421    3.8388474    1.8096500
369  1    12.7961579    5.1184632    3.6193000
370  1    19.1942368    3.8388474    1.8096500
371  1    16.6350052    3.8388474    1.8096500
372  1    17.9146210    5.1184632    3.6193000
373  1    24.3127000    3.8388474    1.8096500
374  1    21.7534684    3.8388474    1.8096500
375  1    23.0330842    5.1184632    3.6193000
376  1    29.4311631    3.8388474    1.8096500
377  1    26.8719315    3.8388474    1.8096500
378  1    28.1515473    5.1184632    3.6193000
379  1    34.5496263    3.8388474    1.8096500
380  1    31.9903947    3.8388474    1.8096500
381  1    33.2700105    5.1184632    3.6193000
382  1    39.6680894    3.8388474    1.8096500
383  1    37.1088578    3.8388474    1.8096500
384  1    38.3884736    5.1184632    3.6193000
385  1    44.7865526    3.8388474    1.8096500
386  1    42.2273210    3.8388474    1.8096500
387  1    43.5069368    5.1184632    3.6193000
388  1    49.9050157    3.8388474    1.8096500
389  1    47.3457841    3.8388474    1.8096500
390  1    48.6253999    5.1184632    3.6193000
391  1    55.0234789    3.8388474    1.8096500
392  1    52.4642473    3.8388474    1.8096500
393  1    53.7438631    5.1184632    3.6193000
394  1    60.1419420    3.8388474    1.8096500
395  1    57.5827104    3.8388474    1.8096500
396  1    58.8623262    5.1184632    3.6193000
397  1    65.2604052    3.8388474    1.8096500
398  1    62.7011736    3.8388474    1.8096500
399  1    63.9807894    5.1184632    3.6193000
400  1    70.3788683    3.8388474    1.8096500
401  1    67.8196367    3.8388474    1.8096500
402  1    69.0992525    5.1184632    3.6193000
403  1    75.4973315    3.8388474    1.8096500
404  1    72.9380999    3.8388474    1.8096500
405  1    74.2177157    5.1184632    3.6193000
406  1    80.6157946    3.8388474    1.8096500
407  1    78.0565630    3.8388474    1.8096500
408  1    79.3361788    5.1184632    3.6193000
409  1    85.7342578    3.8388474    1.8096500
410  1    83.1750262    3.8388474    1.8096500
411  1    84.4546420    5.1184632    3.6193000
412  1    90.8527209    3.8388474    1.8096500
413  1    88.2934893    3.8388474    1.8096500
414  1    89.5731051    5.1184632    3.6193000
415  1    95.9711841    3.8388474    1.8096500
416  1    93.4119525    3.8388474    1.8096500
417  1    94.6915683    5.1184632    3.6193000
418  1   101.0896472    3.8388474    1.8096500
419  1    98.5304156    3.8388474    1.8096500
420  1    99.8100314    5.1184632    3.6193000
421  1   106.2081104    3.8388474    1.8096500
422  1   103.6488788    3.8388474    1.8096500
423  1   104.9284946    5.1184632    3.6193000
424  1   111.3265735    3.8388474    1.8096500
425  1   108.7673419    3.8388474    1.8096500
426  1   110.0469577    5.1184632    3.6193000
427  1   116.4450367    3.8388474    1.8096500
428  1   113.8858051    3.8388474    1.8096500
429  1   115.1654209    5.1184632    3.6193000
430  1   121.5634998    3.8388474    1.8096500
431  1   119.0042682    3.8388474    1.8096500
432  1   120.2838840    5.1184632    3.6193000
433  1   126.6819630    3.8388474    1.8096500
434  1   124.1227314    3.8388474    1.8096500
435  1   125.4023472    5.1184632    3.6193000
436  1   131.8004261    3.8388474    1.8096500
437  1   129.2411945    3.8388474    1.8096500
438  1   130.5208103    5.1184632    3.6193000
439  1   136.9188893    3.8388474    1.8096500
440  1   134.3596577    3.8388474    1.8096500
441  1   135.6392735    5.1184632    3.6193000
442  1   142.0373524    3.8388474    1.8096500
443  1   139.4781208    3.8388474    1.8096500
444  1   140.7577366    5.1184632    3.6193000
445  1   147.1558156    3.8388474    1.8096500
446  1   144.5965840    3.8388474    1.8096500
447  1   145.8761998    5.1184632    3.6193000
448  1   152.2742787    3.8388474    1.8096500
449  1   149.7150471    3.8388474    1.8096500
450  1   150.9946629    5.1184632    3.6193000
451  1   157.3927419    3.8388474    1.8096500
452  1   154.8335103    3.8388474    1.8096500
453  1   156.1131261    5.1184632    3.6193000
454  1   162.5112050    3.8388474    1.8096500
455  1   159.9519734    3.8388474    1.8096500
456  1   161.2315892    5.1184632    3.6193000
457  1   167.6296682    3.8388474    1.8096500
458  1   165.0704366    3.8388474    1.8096500
459  1   166.3500524    5.1184632    3.6193000
460  1   172.7481313    3.8388474    1.8096500
461  1   170.1888997    3.8388474    1.8096500
462  1   171.4685155    5.1184632    3.6193000
463  1   177.8665945    3.8388474    1.8096500
464  1   175.3073629    3.8388474    1.8096500
465  1   176.5869787    5.1184632    3.6193000
466  1   182.9850576    3.8388474    1.8096500
467  1   180.4258260    3.8388474    1.8096500
468  1   181.7054418    5.1184632    3.6193000
469  1   188.1035208    3.8388474    1.8096500
470  1   185.5442892    3.8388474    1.8096500
471  1   186.8239050    5.1184632    3.6193000
472  1   193.2219839    3.8388474    1.8096500
473  1   190.6627523    3.8388474    1.8096500
474  1   191.9423681    5.1184632    3.6193000
475  1   198.3404471    3.8388474    1.8096500
476  1   195.7812155    3.8388474    1.8096500
477  1   197.0608313    5.1184632    3.6193000
478  1   203.4589102    3.8388474    1.8096500
479  1   200.8996786    3.8388474    1.8096500
480  1   202.1792944    5.1184632    3.6193000
481  1     1.2796158    6.3980789    1.8096500
482  1   203.4589102    6.3980789    1.8096500
483  1     0.0000000    7.6776947    3.6193000
484  1     3.8388474    8.9573105    1.8096500
485  1     1.2796158    8.9573105    1.8096500
486  1     2.5592316   10.2369263    3.6193000
487  1     6.3980789    6.3980789    1.8096500
488  1     3.8388474    6.3980789    1.8096500
489  1     5.1184632    7.6776947    3.6193000
490  1     8.9573105    8.9573105    1.8096500
491  1     6.3980789    8.9573105    1.8096500
492  1     7.6776947   10.2369263    3.6193000
493  1    11.5165421    6.3980789    1.8096500
494  1     8.9573105    6.3980789    1.8096500
495  1    10.2369263    7.6776947    3.6193000
496  1    14.0757737    8.9573105    1.8096500
497  1    11.5165421    8.9573105    1.8096500
498  1    12.7961579   10.2369263    3.6193000
499  1    16.6350052    6.3980789    1.8096500
500  1    14.0757737    6.3980789    1.8096500
501  1    15.3553895    7.6776947    3.6193000
502  1    19.1942368    8.9573105    1.8096500
503  1    16.6350052    8.9573105    1.8096500
504  1    17.9146210   10.2369263    3.6193000
505  1    21.7534684    6.3980789    1.8096500
506  1    19.1942368    6.3980789    1.8096500
507  1    20.4738526    7.6776947    3.6193000
508  1    24.3127000    8.9573105    1.8096500
509  1    21.7534684    8.9573105    1.8096500
510  1    23.0330842   10.2369263    3.6193000
511  1    26.8719315    6.3980789    1.8096500
512  1    24.3127000    6.3980789    1.8096500
513  1    25.5923158    7.6776947    3.6193000
514  1    29.4311631    8.9573105    1.8096500
515  1    26.8719315    8.9573105    1.8096500
516  1    28.1515473   10.2369263    3.6193000
517  1    31.9903947    6.3980789    1.8096500
518  1    29.4311631    6.3980789    1.8096500
519  1    30.7107789    7.6776947    3.6193000
520  1    34.5496263    8.9573105    1.8096500
521  1    31.9903947    8.9573105    1.8096500
522  1    33.2700105   10.2369263    3.6193000
523  1    37.1088578    6.3980789    1.8096500
524  1    34.5496263    6.3980789    1.8096500
525  1    35.8292420    7.6776947    3.6193000
526  1    39.6680894    8.9573105    1.8096500
527  1    37.1088578    8.9573105    1.8096500
528  1    38.3884736   10.2369263    3.6193000
529  1    42.2273210    6.3980789    1.8096500
530  1    39.6680894    6.3980789    1.8096500
531  1    40.9477052    7.6776947    3.6193000
532  1    44.7865526    8.9573105    1.8096500
533  1    42.2273210    8.9573105    1.8096500
534  1    43.5069368   10.2369263    3.6193000
535  1    47.3457841    6.3980789    1.8096500
536  1    44.7865526    6.3980789    1.8096500
537  1    46.0661684    7.6776947    3.6193000
538  1    49.9050157    8.9573105    1.8096500
539  1    47.3457841    8.9573105    1.8096500
540  1    48.6253999   10.2369263    3.6193000
541  1    52.4642473    6.3980789    1.8096500
542  1    49.9050157    6.3980789    1.8096500
543  1    51.1846315    7.6776947    3.6193000
544  1    55.0234789    8.9573105    1.8096500
545  1    52.4642473    8.9573105    1.8096500
546  1    53.7438631   10.2369263    3.6193000
547  1    57.5827104    6.3980789    1.8096500
548  1    55.0234789    6.3980789    1.8096500
549  1    56.3030947    7.6776947    3.6193000
550  1    60.1419420    8.9573105    1.8096500
551  1    57.5827104    8.9573105    1.8096500
552  1    58.8623262   10.2369263    3.6193000
553  1    62.7011736    6.3980789    1.8096500
554  1    60.1419420    6.3980789    1.8096500
555  1    61.4215578    7.6776947    3.6193000
556  1    65.2604052    8.9573105    1.8096500
557  1    62.7011736    8.9573105    1.8096500
558  1    63.9807894   10.2369263    3.6193000
559  1    67.8196367    6.3980789    1.8096500
560  1    65.2604052    6.3980789    1.8096500
561  1    66.5400209    7.6776947    3.6193000
562  1    70.3788683    8.9573105    1.8096500
563  1    67.8196367    8.9573105    1.8096500
564  1    69.0992525   10.2369263    3.6193000
565  1    72.9380999    6.3980789    1.8096500
566  1    70.3788683    6.3980789    1.8096500
567  1    71.6584841    7.6776947    3.6193000
568  1    75.4973315    8.9573105    1.8096500
569  1    72.9380999    8.9573105    1.8096500
570  1    74.2177157   10.2369263    3.6193000
571  1    78.0565630    6.3980789    1.8096500
572  1    75.4973315    6.3980789    1.8096500
573  1    76.7769473    7.6776947    3.6193000
574  1    80.6157946    8.9573105    1.8096500
575  1    78.0565630    8.9573105    1.8096500
576  1    79.3361788   10.2369263    3.6193000
577  1    83.1750262    6.3980789    1.8096500
578  1    80.6157946    6.3980789    1.8096500
579  1    81.8954104    7.6776947    3.6193000
580  1    85.7342578    8.9573105    1.8096500
581  1    83.1750262    8.9573105    1.8096500
582  1    84.4546420   10.2369263    3.6193000
583  1    88.2934893    6.3980789    1.8096500
584  1    85.7342578    6.3980789    1.8096500
585  1    87.0138735    7.6776947    3.6193000
586  1    90.8527209    8.9573105    1.8096500
587  1    88.2934893    8.9573105    1.8096500
588  1    89.5731051   10.2369263    3.6193000
589  1    93.4119525    6.3980789    1.8096500
590  1    90.8527209    6.3980789    1.8096500
591  1    92.1323367    7.6776947    3.6193000
592  1    95.9711841    8.9573105    1.8096500
593  1    93.4119525    8.9573105    1.8096500
594  1    94.6915683   10.2369263    3.6193000
595  1    98.5304156    6.3980789    1.8096500
596  1    95.9711841    6.3980789    1.8096500
597  1    97.2507998    7.6776947    3.6193000
598  1   101.0896472    8.9573105    1.8096500
599  1    98.5304156    8.9573105    1.8096500
600  1    99.8100314   10.2369263    3.6193000
601  1   103.6488788    6.3980789    1.8096500
602  1   101.0896472    6.3980789    1.8096500
603  1   102.3692630    7.6776947    3.6193000
604  1   106.2081104    8.9573105    1.8096500
605  1   103.6488788    8.9573105    1.8096500
606  1   104.9284946   10.2369263    3.6193000
607  1   108.7673419    6.3980789    1.8096500
608  1   106.2081104    6.3980789    1.8096500
609  1   107.4877262    7.6776947    3.6193000
610  1   111.3265735    8.9573105    1.8096500
611  1   108.7673419    8.9573105    1.8096500
612  1   110.0469577   10.2369263    3.6193000
613  1   113.8858051    6.3980789    1.8096500
614  1   111.3265735    6.3980789    1.8096500
615  1   112.6061893    7.6776947    3.6193000
616  1   116.4450367    8.9573105    1.8096500
617  1   113.8858051    8.9573105    1.8096500
618  1   115.1654209   10.2369263    3.6193000
619  1   119.0042682    6.3980789    1.8096500
620  1   116.4450367    6.3980789    1.8096500
621  1   117.7246524    7.6776947    3.6193000
622  1   121.5634998    8.9573105    1.8096500
623  1   119.0042682    8.9573105    1.8096500
624  1   120.2838840   10.2369263    3.6193000
625  1   124.1227314    6.3980789    1.8096500
626  1   121.5634998    6.3980789    1.8096500
627  1   122.8431156    7.6776947    3.6193000
628  1   126.6819630    8.9573105    1.8096500
629  1   124.1227314    8.9573105    1.8096500
630  1   125.4023472   10.2369263    3.6193000
631  1   129.2411945    6.3980789    1.8096500
632  1   126.6819630    6.3980789    1.8096500
633  1   127.9615788    7.6776947    3.6193000
634  1   131.8004261    8.9573105    1.8096500
635  1   129.2411945    8.9573105    1.8096500
636  1   130.5208103   10.2369263    3.6193000